============================== echo of input deck ==============================
memory total 50 gb

echo

start water

geometry units angstroms
symmetry C1
  H    0.7493682    0.0000000    0.4424329
  O    0.0000000    0.0000000   -0.1653507
  H   -0.7493682    0.0000000    0.4424329
end

basis spherical
 * library 6-31g
end

scf
  singlet
  rhf
  thresh 1e-8
  direct
end

tce
  mbpt2
  2eorb
  2emet 13
  thresh 1.0d-7
  maxiter 150
end

set tce:print_integrals T
set tce:qorb 13
set tce:qela 5
set tce:qelb 5

task tce energy

================================================================================

 Output coordinates in angstroms (scale by  1.889725989 to convert to a.u.)

  No.       Tag          Charge          X              Y              Z
 ---- ---------------- ---------- -------------- -------------- --------------
    1 H                    1.0000     0.74936820     0.00000000     0.48622688
    2 O                    8.0000     0.00000000     0.00000000    -0.12155672
    3 H                    1.0000    -0.74936820     0.00000000     0.48622688

         Total SCF energy =    -75.982640175708

 Vector    2  Occ=2.000000D+00  E=-1.355275D+00

 Vector    3  Occ=2.000000D+00  E=-7.013540D-01

 Vector    4  Occ=2.000000D+00  E=-5.645592D-01

 Vector    5  Occ=2.000000D+00  E=-5.022597D-01

 Vector    6  Occ=0.000000D+00  E= 2.012887D-01

 Vector    7  Occ=0.000000D+00  E= 2.972583D-01

 Vector    8  Occ=0.000000D+00  E= 1.040744D+00

 Vector    9  Occ=0.000000D+00  E= 1.163462D+00

 Vector   10  Occ=0.000000D+00  E= 1.185188D+00

 Vector   11  Occ=0.000000D+00  E= 1.222994D+00

 Vector   12  Occ=0.000000D+00  E= 1.374624D+00

 Vector   13  Occ=0.000000D+00  E= 1.704724D+00

       Multipole analysis of the density wrt the origin
       ------------------------------------------------

     L   x y z        total         open         nuclear
     -   - - -        -----         ----         -------
     0   0 0 0     -0.000000      0.000000     10.000000

     1   1 0 0     -0.000000      0.000000      0.000000
     1   0 1 0     -0.000000      0.000000      0.000000
     1   0 0 1      1.053053      0.000000      0.000000

     2   2 0 0     -3.212785      0.000000      4.010682
     2   1 1 0     -0.000000      0.000000      0.000000
     2   1 0 1     -0.000000      0.000000      0.000000
     2   0 2 0     -5.368675      0.000000      0.000000
     2   0 1 1      0.000000      0.000000      0.000000

 Total times  cpu:        1.5s     wall:       32.0s
